          37
Energy of minimum      1=    -124.7239532     first found at step     9399
N          -0.2920185279       -3.0322845964        0.3346409336
H         -0.8545471741       -3.5732147220        0.9790473736
H          0.1467284924       -3.6201557434       -0.3541349476
H         -0.9543322595       -2.3951314652       -0.1089416670
C          0.6856709715       -2.2339202012        1.1067241015
H          1.2947350864       -2.9130427833        1.7007257593
C          1.6542650726       -1.4045894747        0.2156620719
H         2.1094949846       -0.6225970397        0.8261440960
H         2.4586216155       -2.0599013257       -0.1205285832
C          1.0083000504       -0.7742819872       -1.0349893467
H         0.7803562214       -1.5513092487       -1.7657043856
H         0.0813483587       -0.3336260660       -0.7238839218
C          1.8338248264        0.3301553806       -1.7175097231
H         2.2810993151        0.9799490510       -0.9637802238
H         2.6457413192       -0.1308283724       -2.2810510984
C          0.9822866714        1.1956980579       -2.6718184301
H         1.6493159093        1.9062016974       -3.1663484917
H         0.5343181847        0.5554277435       -3.4355234644
N         -0.0865983777        1.9525686613       -1.9679651222
H         0.2606104240        2.4334483546       -1.1300393478
H        -0.5549622234        2.6488518505       -2.5220734635
H        -0.8175528130        1.3506512297       -1.5746481848
C          -0.1502826350       -1.4713536464        2.1304128825
O          -0.7442486319       -2.1505595455        2.9589885824
N          -0.3210718562       -0.1617108079        1.9874872254
H           0.4160297001        0.3683352332        1.5269197103
C         -1.6381864466        0.4340194508        1.6931571799
H         -2.3662161790        0.1182967725        2.4403186399
C         -1.4900389644        1.9817025492        1.7591211413
H        -2.4470000370        2.4340831010        1.4927442399
H        -1.2823985789        2.2561284650        2.7948997144
C         -0.3706825372        2.5823880195        0.8749826387
O         0.7111625048        1.9598065574        0.7175255313
O        -0.5908474483        3.6005438458        0.1846946938
C          -2.1504054627       -0.0617247738        0.3130783866
O          -2.2917559185       -1.2992243896        0.1782172995
O        -2.1307636370        0.7012001684       -0.6765518003
